                         Program Version 4.2.0 -  RELEASE  -
|  1> # Functional Basis-set
|  2> ! MP2 Def2-TZVP
|  3>
|  4> # Type of calculation
|  5> ! OPT
|  6>
|  7> # Options
|  8> ! TightSCF
|  9>
| 10> %pal nprocs 12 end
| 11>
| 12> %scf maxiter 800 end
| 13>
| 14> *xyz  0  1
| 15>     O      1.55448395      1.06366445      0.38644146
| 16>     H      2.36615373      1.20499956     -0.10084530
| 17>     H      0.86009146      1.21737032     -0.25420309
| 18>     O     -1.44148097     -1.16827388     -0.50438523
| 19>     H     -1.44576890     -2.05703782     -0.85978939
| 20>     H     -0.86114323     -1.21639532      0.25530174
| 21>     O     -0.49485768      1.22265873     -1.39906161
| 22>     H     -0.87679998      0.37440591     -1.17363073
| 23>     H     -1.24729537      1.80602846     -1.49779932
| 24>     O      0.38185711     -1.11804905      1.51700460
| 25>     H      0.32690325     -0.95398964      2.45843778
| 26>     H      0.87785532     -0.37538187      1.17252952
| 27> *
| 28>
| 29>                          ****END OF INPUT****
 Total Charge           Charge          ....    0
 Multiplicity           Mult            ....    1
 Number of Electrons    NEL             ....   40
MP2 TOTAL ENERGY:     -305.297922758 Eh
FINAL SINGLE POINT ENERGY      -305.297922758381
MP2 TOTAL ENERGY:     -305.300328159 Eh
FINAL SINGLE POINT ENERGY      -305.300328159285
MP2 TOTAL ENERGY:     -305.300575995 Eh
FINAL SINGLE POINT ENERGY      -305.300575995106
MP2 TOTAL ENERGY:     -305.301307673 Eh
FINAL SINGLE POINT ENERGY      -305.301307672948
MP2 TOTAL ENERGY:     -305.301464916 Eh
FINAL SINGLE POINT ENERGY      -305.301464916417
MP2 TOTAL ENERGY:     -305.301508475 Eh
FINAL SINGLE POINT ENERGY      -305.301508474869
FINAL SINGLE POINT ENERGY      -305.301563284516
FINAL SINGLE POINT ENERGY      -305.301570100094
MP2 TOTAL ENERGY:     -305.301630533 Eh
FINAL SINGLE POINT ENERGY      -305.301630532555
MP2 TOTAL ENERGY:     -305.301702891 Eh
FINAL SINGLE POINT ENERGY      -305.301702891403
MP2 TOTAL ENERGY:     -305.301803956 Eh
FINAL SINGLE POINT ENERGY      -305.301803956347
MP2 TOTAL ENERGY:     -305.301866951 Eh
FINAL SINGLE POINT ENERGY      -305.301866950885
MP2 TOTAL ENERGY:     -305.301884512 Eh
FINAL SINGLE POINT ENERGY      -305.301884512371
                    ***********************HURRAY********************

CARTESIAN COORDINATES (ANGSTROEM)
---------------------------------
  O      1.521309    1.113080    0.393073
  H      2.364276    1.140146   -0.069582
  H      0.836238    1.276204   -0.293890
  O     -1.466577   -1.163747   -0.450198
  H     -1.426560   -2.008225   -0.909142
  H     -0.862336   -1.252045    0.321130
  O     -0.492192    1.179373   -1.440362
  H     -0.921458    0.325184   -1.208110
  H     -1.199659    1.831119   -1.449953
  O      0.437461   -1.128707    1.497487
  H      0.261939   -0.963037    2.428680
  H      0.947557   -0.349345    1.180868

 Multiplicity           Mult            ....    1
 Number of Electrons    NEL             ....   40
 Basis Dimension        Dim             ....  172

ORBITAL ENERGIES
----------------

  NO   OCC          E(Eh)            E(eV)
   0   2.0000     -20.553280      -559.2832
   1   2.0000     -20.553271      -559.2829
   2   2.0000     -20.553271      -559.2829
   3   2.0000     -20.553261      -559.2827
   4   2.0000      -1.357856       -36.9492
   5   2.0000      -1.341646       -36.5080
   6   2.0000      -1.341646       -36.5080
   7   2.0000      -1.325737       -36.0751
   8   2.0000      -0.728777       -19.8310
   9   2.0000      -0.714565       -19.4443
  10   2.0000      -0.714565       -19.4443
  11   2.0000      -0.704727       -19.1766
  12   2.0000      -0.621674       -16.9166
  13   2.0000      -0.581997       -15.8369
  14   2.0000      -0.581997       -15.8369
  15   2.0000      -0.544434       -14.8148
  16   2.0000      -0.503842       -13.7102
  17   2.0000      -0.502361       -13.6699
  18   2.0000      -0.502361       -13.6699
  19   2.0000      -0.501381       -13.6433
  20   0.0000       0.125364         3.4113
  21   0.0000       0.159842         4.3495
  22   0.0000       0.159842         4.3495
  23   0.0000       0.176899         4.8137
  24   0.0000       0.299442         8.1482

MULLIKEN ATOMIC CHARGES
-----------------------
   0 O :   -0.733690
   1 H :    0.345101
   2 H :    0.388589
   3 O :   -0.733690
   4 H :    0.345101
   5 H :    0.388589
   6 O :   -0.733690
   7 H :    0.388589
   8 H :    0.345101
   9 O :   -0.733690
  10 H :    0.345101
  11 H :    0.388589
Sum of atomic charges:   -0.0000000

LOEWDIN ATOMIC CHARGES
----------------------
   0 O :   -0.310257
   1 H :    0.159446
   2 H :    0.150811
   3 O :   -0.310257
   4 H :    0.159446
   5 H :    0.150811
   6 O :   -0.310257
   7 H :    0.150811
   8 H :    0.159446
   9 O :   -0.310257
  10 H :    0.159446
  11 H :    0.150811

  Mayer bond orders larger than 0.100000
B(  0-O ,  1-H ) :   0.8458 B(  0-O ,  2-H ) :   0.7616 B(  3-O ,  4-H ) :   0.8458
B(  3-O ,  5-H ) :   0.7616 B(  6-O ,  7-H ) :   0.7616 B(  6-O ,  8-H ) :   0.8458
B(  9-O , 10-H ) :   0.8458 B(  9-O , 11-H ) :   0.7616

MP2 TOTAL ENERGY:     -305.301886332 Eh
FINAL SINGLE POINT ENERGY      -305.301886332108

DIPOLE MOMENT
-------------
                                X             Y             Z
Electronic contribution:      0.00000       0.00000      -0.00000
Nuclear contribution   :     -0.00000       0.00000       0.00000
                        -----------------------------------------
Total Dipole Moment    :     -0.00000       0.00000      -0.00000
                        -----------------------------------------
Magnitude (a.u.)       :      0.00000
Magnitude (Debye)      :      0.00001

Rotational constants in cm-1:     0.121464     0.121464     0.061962
Rotational constants in MHz :  3641.407125  3641.391390  1857.569842

                             ****ORCA TERMINATED NORMALLY****
TOTAL RUN TIME: 0 days 0 hours 3 minutes 5 seconds 959 msec
