                         Program Version 4.2.0 -  RELEASE  -
|  1> # Functional Basis-set
|  2> ! MP2 def2-TZVP
|  3>
|  4> # Type of calculation
|  5> ! SP
|  6>
|  7> # Options
|  8> ! TightSCF Grid4
|  9> %maxcore 8000
| 10>
| 11> %pal nprocs 24 end
| 12>
| 13> *xyz  0  1
| 14> O 1.794470 0.923410 2.768350
| 15> H 2.338250 1.359750 3.430940
| 16> H 0.879480 1.303000 2.865760
| 17> O -1.794470 -0.923410 2.768350
| 18> H -2.338250 -1.359750 3.430940
| 19> H -0.879480 -1.303000 2.865760
| 20> O 0.923410 -1.794470 -2.768350
| 21> H 1.359750 -2.338250 -3.430940
| 22> H 1.303000 -0.879480 -2.865760
| 23> O -1.752130 -0.741530 -2.896280
| 24> H -2.036450 -0.920500 -1.984040
| 25> H -0.921210 -1.242140 -2.984230
| 26> O -0.885520 1.737840 0.052730
| 27> H -1.032320 2.090180 -0.841890
| 28> H -1.284090 0.839590 0.017130
| 29> O 0.885520 -1.737840 0.052730
| 30> H 1.284090 -0.839590 0.017130
| 31> H 1.032320 -2.090180 -0.841890
| 32> O 1.737840 0.885520 -0.052730
| 33> H 2.090180 1.032320 0.841890
| 34> H 0.839590 1.284090 -0.017130
| 35> O -1.737840 -0.885520 -0.052730
| 36> H -2.090180 -1.032320 0.841890
| 37> H -0.839590 -1.284090 -0.017130
| 38> O 1.752130 0.741530 -2.896280
| 39> H 2.036450 0.920500 -1.984040
| 40> H 0.921210 1.242140 -2.984230
| 41> O 0.741530 -1.752130 2.896280
| 42> H 0.920500 -2.036450 1.984040
| 43> H 1.242140 -0.921210 2.984230
| 44> O -0.923410 1.794470 -2.768350
| 45> H -1.359750 2.338250 -3.430940
| 46> H -1.303000 0.879480 -2.865760
| 47> O -0.741530 1.752130 2.896280
| 48> H -0.920500 2.036450 1.984040
| 49> H -1.242140 0.921210 2.984230
| 50> *
| 51>
| 52>                          ****END OF INPUT****

CARTESIAN COORDINATES (ANGSTROEM)
---------------------------------
  O      1.794470    0.923410    2.768350
  H      2.338250    1.359750    3.430940
  H      0.879480    1.303000    2.865760
  O     -1.794470   -0.923410    2.768350
  H     -2.338250   -1.359750    3.430940
  H     -0.879480   -1.303000    2.865760
  O      0.923410   -1.794470   -2.768350
  H      1.359750   -2.338250   -3.430940
  H      1.303000   -0.879480   -2.865760
  O     -1.752130   -0.741530   -2.896280
  H     -2.036450   -0.920500   -1.984040
  H     -0.921210   -1.242140   -2.984230
  O     -0.885520    1.737840    0.052730
  H     -1.032320    2.090180   -0.841890
  H     -1.284090    0.839590    0.017130
  O      0.885520   -1.737840    0.052730
  H      1.284090   -0.839590    0.017130
  H      1.032320   -2.090180   -0.841890
  O      1.737840    0.885520   -0.052730
  H      2.090180    1.032320    0.841890
  H      0.839590    1.284090   -0.017130
  O     -1.737840   -0.885520   -0.052730
  H     -2.090180   -1.032320    0.841890
  H     -0.839590   -1.284090   -0.017130
  O      1.752130    0.741530   -2.896280
  H      2.036450    0.920500   -1.984040
  H      0.921210    1.242140   -2.984230
  O      0.741530   -1.752130    2.896280
  H      0.920500   -2.036450    1.984040
  H      1.242140   -0.921210    2.984230
  O     -0.923410    1.794470   -2.768350
  H     -1.359750    2.338250   -3.430940
  H     -1.303000    0.879480   -2.865760
  O     -0.741530    1.752130    2.896280
  H     -0.920500    2.036450    1.984040
  H     -1.242140    0.921210    2.984230

 Total Charge           Charge          ....    0
 Multiplicity           Mult            ....    1
 Number of Electrons    NEL             ....  120
 Basis Dimension        Dim             ....  516

ORBITAL ENERGIES
----------------

  NO   OCC          E(Eh)            E(eV)
   0   2.0000     -20.569314      -559.7195
   1   2.0000     -20.569314      -559.7195
   2   2.0000     -20.569314      -559.7195
   3   2.0000     -20.569313      -559.7195
   4   2.0000     -20.559693      -559.4577
   5   2.0000     -20.559682      -559.4574
   6   2.0000     -20.559682      -559.4574
   7   2.0000     -20.559672      -559.4571
   8   2.0000     -20.554436      -559.3146
   9   2.0000     -20.554436      -559.3146
  10   2.0000     -20.554436      -559.3146
  11   2.0000     -20.554436      -559.3146
  12   2.0000      -1.375496       -37.4291
  13   2.0000      -1.367584       -37.2139
  14   2.0000      -1.361721       -37.0543
  15   2.0000      -1.361721       -37.0543
  16   2.0000      -1.359248       -36.9870
  17   2.0000      -1.350660       -36.7533
  18   2.0000      -1.350660       -36.7533
  19   2.0000      -1.342063       -36.5194
  20   2.0000      -1.340024       -36.4639
  21   2.0000      -1.340024       -36.4639
  22   2.0000      -1.334589       -36.3160
  23   2.0000      -1.326875       -36.1061
  24   2.0000      -0.736344       -20.0369
  25   2.0000      -0.734579       -19.9889
  26   2.0000      -0.734579       -19.9889
  27   2.0000      -0.734279       -19.9808
  28   2.0000      -0.725949       -19.7541
  29   2.0000      -0.725577       -19.7440
  30   2.0000      -0.722679       -19.6651
  31   2.0000      -0.722679       -19.6651
  32   2.0000      -0.714093       -19.4314
  33   2.0000      -0.710434       -19.3319
  34   2.0000      -0.705393       -19.1947
  35   2.0000      -0.705393       -19.1947
  36   2.0000      -0.651256       -17.7216
  37   2.0000      -0.629296       -17.1240
  38   2.0000      -0.620737       -16.8911
  39   2.0000      -0.620737       -16.8911
  40   2.0000      -0.601051       -16.3554
  41   2.0000      -0.598307       -16.2808
  42   2.0000      -0.597685       -16.2638
  43   2.0000      -0.597685       -16.2638
  44   2.0000      -0.573893       -15.6164
  45   2.0000      -0.573893       -15.6164
  46   2.0000      -0.566298       -15.4098
  47   2.0000      -0.543639       -14.7932
  48   2.0000      -0.518455       -14.1079
  49   2.0000      -0.518455       -14.1079
  50   2.0000      -0.517072       -14.0702
  51   2.0000      -0.516434       -14.0529
  52   2.0000      -0.513083       -13.9617
  53   2.0000      -0.509490       -13.8639
  54   2.0000      -0.509490       -13.8639
  55   2.0000      -0.503680       -13.7058
  56   2.0000      -0.501232       -13.6392
  57   2.0000      -0.500771       -13.6267
  58   2.0000      -0.500646       -13.6233
  59   2.0000      -0.500646       -13.6233
  60   0.0000       0.115544         3.1441
  61   0.0000       0.132078         3.5940
  62   0.0000       0.143837         3.9140
  63   0.0000       0.143837         3.9140
  64   0.0000       0.187508         5.1024

MULLIKEN ATOMIC CHARGES
-----------------------
   0 O :   -0.802102
   1 H :    0.362154
   2 H :    0.418759
   3 O :   -0.802102
   4 H :    0.362154
   5 H :    0.418759
   6 O :   -0.802102
   7 H :    0.362154
   8 H :    0.418759
   9 O :   -0.769393
  10 H :    0.405966
  11 H :    0.392355
  12 O :   -0.811619
  13 H :    0.405932
  14 H :    0.397947
  15 O :   -0.811619
  16 H :    0.397947
  17 H :    0.405932
  18 O :   -0.811619
  19 H :    0.405932
  20 H :    0.397947
  21 O :   -0.811619
  22 H :    0.405932
  23 H :    0.397947
  24 O :   -0.769393
  25 H :    0.405966
  26 H :    0.392355
  27 O :   -0.769393
  28 H :    0.405966
  29 H :    0.392355
  30 O :   -0.802102
  31 H :    0.362154
  32 H :    0.418759
  33 O :   -0.769393
  34 H :    0.405966
  35 H :    0.392355
Sum of atomic charges:   -0.0000000

LOEWDIN ATOMIC CHARGES
----------------------
   0 O :   -0.329082
   1 H :    0.159518
   2 H :    0.157991
   3 O :   -0.329082
   4 H :    0.159518
   5 H :    0.157991
   6 O :   -0.329082
   7 H :    0.159518
   8 H :    0.157991
   9 O :   -0.300512
  10 H :    0.161834
  11 H :    0.157045
  12 O :   -0.318854
  13 H :    0.159550
  14 H :    0.152509
  15 O :   -0.318854
  16 H :    0.152509
  17 H :    0.159550
  18 O :   -0.318854
  19 H :    0.159550
  20 H :    0.152509
  21 O :   -0.318854
  22 H :    0.159550
  23 H :    0.152509
  24 O :   -0.300512
  25 H :    0.161834
  26 H :    0.157045
  27 O :   -0.300512
  28 H :    0.161834
  29 H :    0.157045
  30 O :   -0.329082
  31 H :    0.159518
  32 H :    0.157991
  33 O :   -0.300512
  34 H :    0.161834
  35 H :    0.157045

  Mayer bond orders larger than 0.100000
B(  0-O ,  1-H ) :   0.8765 B(  0-O ,  2-H ) :   0.7598 B(  3-O ,  4-H ) :   0.8765
B(  3-O ,  5-H ) :   0.7598 B(  6-O ,  7-H ) :   0.8765 B(  6-O ,  8-H ) :   0.7598
B(  9-O , 10-H ) :   0.8315 B(  9-O , 11-H ) :   0.8321 B( 12-O , 13-H ) :   0.8256
B( 12-O , 14-H ) :   0.7958 B( 15-O , 16-H ) :   0.7958 B( 15-O , 17-H ) :   0.8256
B( 18-O , 19-H ) :   0.8256 B( 18-O , 20-H ) :   0.7958 B( 21-O , 22-H ) :   0.8256
B( 21-O , 23-H ) :   0.7958 B( 24-O , 25-H ) :   0.8315 B( 24-O , 26-H ) :   0.8321
B( 27-O , 28-H ) :   0.8315 B( 27-O , 29-H ) :   0.8321 B( 30-O , 31-H ) :   0.8765
B( 30-O , 32-H ) :   0.7598 B( 33-O , 34-H ) :   0.8315 B( 33-O , 35-H ) :   0.8321

MP2 TOTAL ENERGY:     -915.963620092 Eh
FINAL SINGLE POINT ENERGY      -915.963620091539

DIPOLE MOMENT
-------------
                                X             Y             Z
Electronic contribution:      0.00000       0.00000      -0.00000
Nuclear contribution   :      0.00000      -0.00000       0.00000
                        -----------------------------------------
Total Dipole Moment    :      0.00000       0.00000      -0.00000
                        -----------------------------------------
Magnitude (a.u.)       :      0.00000
Magnitude (Debye)      :      0.00000

Rotational constants in cm-1:     0.020155     0.010664     0.010664
Rotational constants in MHz :   604.231673   319.684828   319.684828

                             ****ORCA TERMINATED NORMALLY****
TOTAL RUN TIME: 0 days 0 hours 1 minutes 8 seconds 954 msec
