                         Program Version 4.2.0 -  RELEASE  -
|  1> ! CCSD(T) ano-pVQZ VeryTightSCF UseSym KeepDens Pal3
|  2>
|  3> %maxcore 8000
|  4>
|  5> %scf ConvForced true end
|  6>
|  7> * int 0 2
|  8> Al  0  0  0  0.00000000  0.00000000  0.00000000  Z=13.00
|  9> *
| 10>
| 11>                          ****END OF INPUT****

CARTESIAN COORDINATES (ANGSTROEM)
---------------------------------
  Al     0.000000    0.000000    0.000000

 Total Charge           Charge          ....    0
 Multiplicity           Mult            ....    2
 Number of Electrons    NEL             ....   13
 Basis Dimension        Dim             ....   59

ORBITAL ENERGIES
----------------
                 SPIN UP ORBITALS
  NO   OCC          E(Eh)            E(eV)    Irrep
   0   1.0000     -58.500989     -1591.8928    1-Ag
   1   1.0000      -4.910691      -133.6267    2-Ag
   2   1.0000      -3.224832       -87.7522    1-B2u
   3   1.0000      -3.217884       -87.5631    1-B3u
   4   1.0000      -3.217884       -87.5631    1-B1u
   5   1.0000      -0.425470       -11.5776    3-Ag
   6   1.0000      -0.218437        -5.9440    2-B2u
   7   0.0000       0.019503         0.5307    2-B3u
   8   0.0000       0.019503         0.5307    2-B1u
   9   0.0000       0.153810         4.1854    4-Ag
  10   0.0000       0.179661         4.8888    3-B2u
  11   0.0000       0.190524         5.1844    5-Ag

                 SPIN DOWN ORBITALS
  NO   OCC          E(Eh)            E(eV)    Irrep
   0   1.0000     -58.498151     -1591.8156    1-Ag
   1   1.0000      -4.907254      -133.5332    2-Ag
   2   1.0000      -3.216401       -87.5227    1-B3u
   3   1.0000      -3.216401       -87.5227    1-B1u
   4   1.0000      -3.207084       -87.2692    1-B2u
   5   1.0000      -0.363349        -9.8872    3-Ag
   6   0.0000       0.026208         0.7132    2-B1u
   7   0.0000       0.026208         0.7132    2-B3u
   8   0.0000       0.059781         1.6267    2-B2u
   9   0.0000       0.164278         4.4702    4-Ag
  10   0.0000       0.204022         5.5517    5-Ag

E(0)                                       ...   -241.880774518
E(0)                                       ...   -241.880774518
E(CORR)                                    ...     -0.052299031
E(TOT)                                     ...   -241.933073549
E(CCSD(T))                                 ...   -241.934366347

MULLIKEN ATOMIC CHARGES AND SPIN DENSITIES
------------------------------------------
   0 Al:   -0.000000    1.000000
Sum of atomic charges       :   -0.0000000

LOEWDIN ATOMIC CHARGES AND SPIN DENSITIES
-----------------------------------------
   0 Al:   -0.000000    1.000000

FINAL SINGLE POINT ENERGY      -241.934366346729

DIPOLE MOMENT
-------------
                                X             Y             Z
Electronic contribution:      0.00000       0.00000       0.00000
Nuclear contribution   :      0.00000       0.00000       0.00000
                        -----------------------------------------
Total Dipole Moment    :      0.00000       0.00000       0.00000
                        -----------------------------------------
Magnitude (a.u.)       :      0.00000
Magnitude (Debye)      :      0.00000

Rotational constants in cm-1:     0.000000     0.000000     0.000000
Rotational constants in MHz :     0.000000     0.000000     0.000000

                             ****ORCA TERMINATED NORMALLY****
TOTAL RUN TIME: 0 days 0 hours 21 minutes 35 seconds 264 msec
