                         Program Version 4.2.0 -  RELEASE  -
|  1> ! DLPNO-CCSD(T) ma-def2-TZVP GRID5 NOFINALGRID TightSCF SP
|  2> ! AUTOAUX
|  3> ! NOFROZENCORE
|  4> ! CPCM
|  5> %cpcm
|  6> smd true
|  7> SMDsolvent "Acetonitrile"
|  8> end
|  9>
| 10> %pal
| 11>     nprocs 4
| 12> end
| 13>
| 14> * xyzfile 0 1 /ihome/jkeith/liz132/orca/gas/CO2/B3LYP/geo.xyz
| 15>
| 16>                          ****END OF INPUT****

CARTESIAN COORDINATES (ANGSTROEM)
---------------------------------
  C      0.000000    0.000000    0.000000
  O      1.159982   -0.000000   -0.000000
  O     -1.159982   -0.000000   -0.000000

 Total Charge           Charge          ....    0
 Multiplicity           Mult            ....    1
 Number of Electrons    NEL             ....   22
 Basis Dimension        Dim             ....  105

ORBITAL ENERGIES
----------------

  NO   OCC          E(Eh)            E(eV)
   0   2.0000     -20.643285      -561.7323
   1   2.0000     -20.643242      -561.7312
   2   2.0000     -11.453589      -311.6680
   3   2.0000      -1.523672       -41.4612
   4   2.0000      -1.471095       -40.0305
   5   2.0000      -0.795022       -21.6337
   6   2.0000      -0.738853       -20.1052
   7   2.0000      -0.708011       -19.2660
   8   2.0000      -0.708005       -19.2658
   9   2.0000      -0.538645       -14.6573
  10   2.0000      -0.538636       -14.6570
  11   0.0000       0.042302         1.1511
  12   0.0000       0.067414         1.8344
  13   0.0000       0.072838         1.9820
  14   0.0000       0.072913         1.9841
  15   0.0000       0.158590         4.3155

MULLIKEN ATOMIC CHARGES
-----------------------
   0 C :    0.777377
   1 O :   -0.388689
   2 O :   -0.388689
Sum of atomic charges:   -0.0000000

LOEWDIN ATOMIC CHARGES
----------------------
   0 C :   -0.214662
   1 O :    0.107331
   2 O :    0.107331

  Mayer bond orders larger than 0.100000
B(  0-C ,  1-O ) :   2.0230 B(  0-C ,  2-O ) :   2.0230 B(  1-O ,  2-O ) :   0.1045

E(0)                                       ...   -187.720049813
E(0)                                       ...   -187.720049813
E(CORR)(strong-pairs)                      ...     -0.646165656
E(CORR)(weak-pairs)                        ...     -0.000783947
E(CORR)(corrected)                         ...     -0.646949603
E(TOT)                                     ...   -188.366999417
E(CCSD(T))                                 ...   -188.393098128
FINAL SINGLE POINT ENERGY      -188.393098127872

DIPOLE MOMENT
-------------
                                X             Y             Z
Electronic contribution:      0.00000      -0.00000       0.00000
Nuclear contribution   :      0.00000       0.00000       0.00000
                        -----------------------------------------
Total Dipole Moment    :      0.00000      -0.00000       0.00000
                        -----------------------------------------
Magnitude (a.u.)       :      0.00000
Magnitude (Debye)      :      0.00000

Rotational constants in cm-1:     0.000000     0.391536     0.391536
Rotational constants in MHz :     0.000000 11737.950390 11737.950390

                             ****ORCA TERMINATED NORMALLY****
TOTAL RUN TIME: 0 days 0 hours 0 minutes 29 seconds 411 msec
