                         Program Version 4.2.0 -  RELEASE  -
|  1> ! DLPNO-CCSD(T) ma-Def2-TZVP Grid5 NoFinalGrid TightSCF SP
|  2> ! AutoAux
|  3> ! NoFrozencore
|  4> ! CPCM
|  5> %cpcm
|  6> smd true
|  7> SMDsolvent "Acetonitrile"
|  8> end
|  9>
| 10> %maxcore 8000
| 11> %pal
| 12>     nprocs 4
| 13> end
| 14> %scf
| 15> MaxIter 1500
| 16> end
| 17>
| 18> * xyzfile -1 2 /ihome/jkeith/liz132/orca/Cr/M_COx6_-12/geo.xyz
| 19>
| 20>
| 21>                          ****END OF INPUT****

CARTESIAN COORDINATES (ANGSTROEM)
---------------------------------
  C     29.208409   18.178336   -0.169447
  Cr    30.094099   19.839526   -0.061397
  C     31.182236   21.383666    0.029616
  C     30.214920   19.649766    1.810731
  C     30.178180   19.913199   -1.949395
  C     28.533550   20.794743    0.021321
  C     32.011266   18.489014   -0.031986
  O     28.665412   17.154893   -0.233564
  O     31.827561   22.346445    0.081416
  O     30.290265   19.530104    2.962416
  O     30.210334   19.977239   -3.107355
  O     27.532304   21.387692    0.089193
  O     32.281327   17.517269    0.555016

 Total Charge           Charge          ....   -1
 Multiplicity           Mult            ....    2
 Number of Electrons    NEL             ....  109
 Basis Dimension        Dim             ....  469

ORBITAL ENERGIES
----------------
                 SPIN UP ORBITALS
  NO   OCC          E(Eh)            E(eV)
   0   1.0000    -220.558967     -6001.7146
   1   1.0000     -26.409646      -718.6430
   2   1.0000     -22.334914      -607.7639
   3   1.0000     -22.334838      -607.7618
   4   1.0000     -22.334239      -607.7455
   5   1.0000     -20.624189      -561.2127
   6   1.0000     -20.624159      -561.2119
   7   1.0000     -20.619948      -561.0973
   8   1.0000     -20.619880      -561.0955
   9   1.0000     -20.597371      -560.4830
  10   1.0000     -20.575057      -559.8758
  11   1.0000     -11.347003      -308.7676
  12   1.0000     -11.346985      -308.7672
  13   1.0000     -11.341484      -308.6175
  14   1.0000     -11.341448      -308.6165
  15   1.0000     -11.321716      -308.0796
  16   1.0000     -11.288475      -307.1750
  17   1.0000      -3.388414       -92.2034
  18   1.0000      -2.132937       -58.0402
  19   1.0000      -2.132082       -58.0169
  20   1.0000      -2.126955       -57.8774
  21   1.0000      -1.472620       -40.0720
  22   1.0000      -1.471863       -40.0514
  23   1.0000      -1.469193       -39.9788
  24   1.0000      -1.468504       -39.9600
  25   1.0000      -1.448985       -39.4289
  26   1.0000      -1.427166       -38.8352
  27   1.0000      -0.830453       -22.5978
  28   1.0000      -0.783047       -21.3078
  29   1.0000      -0.782864       -21.3028
  30   1.0000      -0.774903       -21.0862
  31   1.0000      -0.767489       -20.8844
  32   1.0000      -0.748781       -20.3754
  33   1.0000      -0.683393       -18.5961
  34   1.0000      -0.639000       -17.3881
  35   1.0000      -0.633908       -17.2495
  36   1.0000      -0.631757       -17.1910
  37   1.0000      -0.630894       -17.1675
  38   1.0000      -0.628986       -17.1156
  39   1.0000      -0.628203       -17.0943
  40   1.0000      -0.617215       -16.7953
  41   1.0000      -0.608846       -16.5675
  42   1.0000      -0.604388       -16.4462
  43   1.0000      -0.603337       -16.4176
  44   1.0000      -0.601527       -16.3684
  45   1.0000      -0.582716       -15.8565
  46   1.0000      -0.574877       -15.6432
  47   1.0000      -0.572455       -15.5773
  48   1.0000      -0.567297       -15.4369
  49   1.0000      -0.549996       -14.9661
  50   1.0000      -0.526745       -14.3335
  51   1.0000      -0.250992        -6.8298
  52   1.0000      -0.249891        -6.7999
  53   1.0000      -0.244330        -6.6486
  54   1.0000      -0.200697        -5.4612
  55   0.0000       0.022859         0.6220
  56   0.0000       0.053185         1.4472
  57   0.0000       0.053354         1.4518
  58   0.0000       0.055320         1.5053
  59   0.0000       0.076734         2.0880

                 SPIN DOWN ORBITALS
  NO   OCC          E(Eh)            E(eV)
   0   1.0000    -220.559580     -6001.7313
   1   1.0000     -26.456934      -719.9298
   2   1.0000     -22.382110      -609.0482
   3   1.0000     -22.381764      -609.0388
   4   1.0000     -22.380923      -609.0159
   5   1.0000     -20.616297      -560.9980
   6   1.0000     -20.616280      -560.9975
   7   1.0000     -20.611633      -560.8711
   8   1.0000     -20.611564      -560.8692
   9   1.0000     -20.585881      -560.1703
  10   1.0000     -20.562661      -559.5385
  11   1.0000     -11.346041      -308.7415
  12   1.0000     -11.346030      -308.7412
  13   1.0000     -11.339965      -308.5761
  14   1.0000     -11.339934      -308.5753
  15   1.0000     -11.319776      -308.0268
  16   1.0000     -11.281308      -306.9800
  17   1.0000      -3.534301       -96.1732
  18   1.0000      -2.308308       -62.8122
  19   1.0000      -2.307186       -62.7817
  20   1.0000      -2.301240       -62.6199
  21   1.0000      -1.456756       -39.6404
  22   1.0000      -1.456098       -39.6224
  23   1.0000      -1.452359       -39.5207
  24   1.0000      -1.451734       -39.5037
  25   1.0000      -1.425702       -38.7953
  26   1.0000      -1.400473       -38.1088
  27   1.0000      -0.799052       -21.7433
  28   1.0000      -0.764601       -20.8058
  29   1.0000      -0.763428       -20.7739
  30   1.0000      -0.759048       -20.6547
  31   1.0000      -0.742716       -20.2103
  32   1.0000      -0.716324       -19.4922
  33   1.0000      -0.667671       -18.1683
  34   1.0000      -0.612892       -16.6776
  35   1.0000      -0.603184       -16.4135
  36   1.0000      -0.602862       -16.4047
  37   1.0000      -0.600907       -16.3515
  38   1.0000      -0.598855       -16.2957
  39   1.0000      -0.594348       -16.1730
  40   1.0000      -0.584514       -15.9054
  41   1.0000      -0.577768       -15.7219
  42   1.0000      -0.575603       -15.6629
  43   1.0000      -0.564707       -15.3664
  44   1.0000      -0.563962       -15.3462
  45   1.0000      -0.557681       -15.1753
  46   1.0000      -0.549815       -14.9612
  47   1.0000      -0.547795       -14.9063
  48   1.0000      -0.533244       -14.5103
  49   1.0000      -0.522024       -14.2050
  50   1.0000      -0.483705       -13.1623
  51   1.0000      -0.446374       -12.1464
  52   1.0000      -0.444954       -12.1078
  53   1.0000      -0.437452       -11.9037
  54   0.0000       0.022597         0.6149
  55   0.0000       0.053541         1.4569
  56   0.0000       0.053868         1.4658
  57   0.0000       0.056198         1.5292
  58   0.0000       0.076857         2.0914

MULLIKEN ATOMIC CHARGES AND SPIN POPULATIONS
--------------------------------------------
   0 C :    0.107607    0.117161
   1 Cr:    0.729684   -1.235422
   2 C :    0.078470    0.178061
   3 C :    0.109818    0.116526
   4 C :    0.077229    0.178459
   5 C :    0.009464    0.159110
   6 C :    0.089494    0.410044
   7 O :   -0.340812    0.166517
   8 O :   -0.346985    0.167677
   9 O :   -0.341108    0.166310
  10 O :   -0.346691    0.167622
  11 O :   -0.433729    0.226206
  12 O :   -0.392441    0.181729
Sum of atomic charges         :   -1.0000000

LOEWDIN ATOMIC CHARGES AND SPIN POPULATIONS
-------------------------------------------
   0 C :   -0.057419    0.157706
   1 Cr:   -0.759780   -1.274416
   2 C :   -0.068884    0.181760
   3 C :   -0.057109    0.157502
   4 C :   -0.069049    0.181813
   5 C :   -0.131119    0.237169
   6 C :   -0.175356    0.434400
   7 O :    0.085976    0.129295
   8 O :    0.075196    0.136539
   9 O :    0.086070    0.129090
  10 O :    0.075220    0.136527
  11 O :    0.035700    0.189031
  12 O :   -0.039444    0.203582

  Mayer bond orders larger than 0.100000
B(  0-C ,  1-Cr) :   0.5788 B(  0-C ,  7-O ) :   2.0136 B(  1-Cr,  2-C ) :   0.6030
B(  1-Cr,  3-C ) :   0.5791 B(  1-Cr,  4-C ) :   0.6020 B(  1-Cr,  5-C ) :   0.6218
B(  1-Cr,  6-C ) :   0.5867 B(  2-C ,  8-O ) :   1.9945 B(  3-C ,  9-O ) :   2.0140
B(  4-C , 10-O ) :   1.9945 B(  5-C , 11-O ) :   1.9374 B(  6-C , 12-O ) :   2.0020

E(0)                                       ...  -1719.925659885
E(0)                                       ...  -1719.925659885
E(CORR)(strong-pairs)                      ...     -3.045213082
E(CORR)(weak-pairs)                        ...     -0.023468651
E(CORR)(corrected)                         ...     -3.068681733
E(TOT)                                     ...  -1722.994341618
E(CCSD(T))                                 ...  -1723.148746656
FINAL SINGLE POINT ENERGY     -1723.148746656288

DIPOLE MOMENT
-------------
                                X             Y             Z
Electronic contribution:     -0.82024       0.91941      -0.26456
Nuclear contribution   :      0.21991      -0.43946       0.21599
                        -----------------------------------------
Total Dipole Moment    :     -0.60033       0.47995      -0.04857
                        -----------------------------------------
Magnitude (a.u.)       :      0.77013
Magnitude (Debye)      :      1.95753

Rotational constants in cm-1:     0.023371     0.021064     0.020077
Rotational constants in MHz :   700.652136   631.469854   601.883736

                             ****ORCA TERMINATED NORMALLY****
TOTAL RUN TIME: 0 days 4 hours 13 minutes 13 seconds 336 msec
