                         Program Version 4.2.0 -  RELEASE  -
|  1> ! HF ano-pVQZ VeryTightSCF UseSym KeepDens Pal4
|  2>
|  3> %maxcore 8000
|  4>
|  5> %scf ConvForced true end
|  6>
|  7> * int 1 2
|  8> He  0  0  0  0.00000000  0.00000000  0.00000000  Z=2.00
|  9> *
| 10>
| 11>                          ****END OF INPUT****

CARTESIAN COORDINATES (ANGSTROEM)
---------------------------------
  He     0.000000    0.000000    0.000000

 Total Charge           Charge          ....    1
 Multiplicity           Mult            ....    2
 Number of Electrons    NEL             ....    1
 Basis Dimension        Dim             ....   30

ORBITAL ENERGIES
----------------
                 SPIN UP ORBITALS
  NO   OCC          E(Eh)            E(eV)    Irrep
   0   1.0000      -1.999761       -54.4163    1-Ag
   1   0.0000       0.146431         3.9846    2-Ag
   2   0.0000       0.378407        10.2970    1-B1u
   3   0.0000       0.378407        10.2970    1-B2u
   4   0.0000       0.378407        10.2970    1-B3u
   5   0.0000       2.391545        65.0772    1-B3g

                 SPIN DOWN ORBITALS
  NO   OCC          E(Eh)            E(eV)    Irrep

MULLIKEN ATOMIC CHARGES AND SPIN POPULATIONS
--------------------------------------------
   0 He:    1.000000    1.000000
Sum of atomic charges         :    1.0000000

LOEWDIN ATOMIC CHARGES AND SPIN POPULATIONS
-------------------------------------------
   0 He:    1.000000    1.000000

FINAL SINGLE POINT ENERGY        -1.999761159399

DIPOLE MOMENT
-------------
                                X             Y             Z
Electronic contribution:     -0.00000       0.00000       0.00000
Nuclear contribution   :      0.00000       0.00000       0.00000
                        -----------------------------------------
Total Dipole Moment    :     -0.00000       0.00000       0.00000
                        -----------------------------------------
Magnitude (a.u.)       :      0.00000
Magnitude (Debye)      :      0.00000

Rotational constants in cm-1:     0.000000     0.000000     0.000000
Rotational constants in MHz :     0.000000     0.000000     0.000000

                             ****ORCA TERMINATED NORMALLY****
TOTAL RUN TIME: 0 days 0 hours 0 minutes 6 seconds 419 msec
