                         Program Version 4.2.0 -  RELEASE  -
|  1> ! CCSD ano-pVQZ VeryTightSCF UseSym KeepDens
|  2>
|  3> %maxcore 8000
|  4>
|  5> %scf ConvForced true end
|  6>
|  7> * int 0 1
|  8> He  0  0  0  0.00000000  0.00000000  0.00000000  Z=2.00
|  9> *
| 10>
| 11>                          ****END OF INPUT****

CARTESIAN COORDINATES (ANGSTROEM)
---------------------------------
  He     0.000000    0.000000    0.000000

 Total Charge           Charge          ....    0
 Multiplicity           Mult            ....    1
 Number of Electrons    NEL             ....    2
 Basis Dimension        Dim             ....   30

ORBITAL ENERGIES
----------------

  NO   OCC          E(Eh)            E(eV)    Irrep
   0   2.0000      -0.918032       -24.9809    1-Ag
   1   0.0000       0.721254        19.6263    2-Ag
   2   0.0000       1.002656        27.2837    1-B2u
   3   0.0000       1.002656        27.2837    1-B3u
   4   0.0000       1.002656        27.2837    1-B1u
   5   0.0000       3.088451        84.0410    1-B3g

E(0)                                       ...     -2.861671386
E(0)                                       ...     -2.861671386
E(CORR)                                    ...     -0.041148831
E(TOT)                                     ...     -2.902820216

MULLIKEN ATOMIC CHARGES
-----------------------
   0 He:   -0.000000
Sum of atomic charges:   -0.0000000

LOEWDIN ATOMIC CHARGES
----------------------
   0 He:   -0.000000

FINAL SINGLE POINT ENERGY        -2.902820216247

DIPOLE MOMENT
-------------
                                X             Y             Z
Electronic contribution:      0.00000       0.00000       0.00000
Nuclear contribution   :      0.00000       0.00000       0.00000
                        -----------------------------------------
Total Dipole Moment    :      0.00000       0.00000       0.00000
                        -----------------------------------------
Magnitude (a.u.)       :      0.00000
Magnitude (Debye)      :      0.00000

Rotational constants in cm-1:     0.000000     0.000000     0.000000
Rotational constants in MHz :     0.000000     0.000000     0.000000

                             ****ORCA TERMINATED NORMALLY****
TOTAL RUN TIME: 0 days 0 hours 0 minutes 6 seconds 380 msec
