                         Program Version 4.2.0 -  RELEASE  -
|  1> ! CCSD(T) ano-pVQZ VeryTightSCF UseSym KeepDens Pal3
|  2>
|  3> %maxcore 8000
|  4>
|  5> %scf ConvForced true end
|  6>
|  7> * int 0 2
|  8> Li  0  0  0  0.00000000  0.00000000  0.00000000  Z=3.00
|  9> *
| 10>
| 11>                          ****END OF INPUT****

CARTESIAN COORDINATES (ANGSTROEM)
---------------------------------
  Li     0.000000    0.000000    0.000000

 Total Charge           Charge          ....    0
 Multiplicity           Mult            ....    2
 Number of Electrons    NEL             ....    3
 Basis Dimension        Dim             ....   31

ORBITAL ENERGIES
----------------
                 SPIN UP ORBITALS
  NO   OCC          E(Eh)            E(eV)    Irrep
   0   1.0000      -2.485344       -67.6296    1-Ag
   1   1.0000      -0.196361        -5.3432    2-Ag
   2   0.0000       0.300507         8.1772    1-B2u
   3   0.0000       0.300507         8.1772    1-B1u
   4   0.0000       0.300507         8.1772    1-B3u
   5   0.0000       0.911705        24.8088    1-B1g
   6   0.0000       0.911705        24.8088    1-B3g

                 SPIN DOWN ORBITALS
  NO   OCC          E(Eh)            E(eV)    Irrep
   0   1.0000      -2.467165       -67.1350    1-Ag
   1   0.0000       0.038107         1.0369    2-Ag
   2   0.0000       0.343319         9.3422    1-B1u
   3   0.0000       0.343319         9.3422    1-B3u
   4   0.0000       0.343319         9.3422    1-B2u
   5   0.0000       0.932219        25.3670    1-B1g

E(0)                                       ...     -7.432741653
E(0)                                       ...     -7.432741653
E(CORR)                                    ...     -0.041110524
E(TOT)                                     ...     -7.473852176
E(CCSD(T))                                 ...     -7.473882409

MULLIKEN ATOMIC CHARGES AND SPIN DENSITIES
------------------------------------------
   0 Li:    0.000000    1.000000
Sum of atomic charges       :    0.0000000

LOEWDIN ATOMIC CHARGES AND SPIN DENSITIES
-----------------------------------------
   0 Li:   -0.000000    1.000000

FINAL SINGLE POINT ENERGY        -7.473882409281

DIPOLE MOMENT
-------------
                                X             Y             Z
Electronic contribution:     -0.00000      -0.00000       0.00000
Nuclear contribution   :      0.00000       0.00000       0.00000
                        -----------------------------------------
Total Dipole Moment    :     -0.00000      -0.00000       0.00000
                        -----------------------------------------
Magnitude (a.u.)       :      0.00000
Magnitude (Debye)      :      0.00000

Rotational constants in cm-1:     0.000000     0.000000     0.000000
Rotational constants in MHz :     0.000000     0.000000     0.000000

                             ****ORCA TERMINATED NORMALLY****
TOTAL RUN TIME: 0 days 0 hours 1 minutes 9 seconds 694 msec
