                         Program Version 4.2.0 -  RELEASE  -
|  1> ! wB97M-V ano-pVQZ VeryTightSCF KeepDens Pal4
|  2>
|  3> %maxcore 8000
|  4>
|  5> %scf ConvForced true end
|  6>
|  7> * int 1 3
|  8> Na  0  0  0  0.00000000  0.00000000  0.00000000  Z=11.00
|  9> *
| 10>
| 11>                          ****END OF INPUT****

CARTESIAN COORDINATES (ANGSTROEM)
---------------------------------
  Na     0.000000    0.000000    0.000000

 Total Charge           Charge          ....    1
 Multiplicity           Mult            ....    3
 Number of Electrons    NEL             ....   10
 Basis Dimension        Dim             ....   32

ORBITAL ENERGIES
----------------
                 SPIN UP ORBITALS
  NO   OCC          E(Eh)            E(eV)
   0   1.0000     -39.789613     -1082.7304
   1   1.0000      -3.275320       -89.1260
   2   1.0000      -2.261768       -61.5458
   3   1.0000      -2.144525       -58.3555
   4   1.0000      -2.144525       -58.3555
   5   1.0000      -0.482087       -13.1183
   6   0.0000       0.436654        11.8820
   7   0.0000       0.482691        13.1347
   8   0.0000       0.482691        13.1347
   9   0.0000       0.534626        14.5479
  10   0.0000       0.682718        18.5777

                 SPIN DOWN ORBITALS
  NO   OCC          E(Eh)            E(eV)
   0   1.0000     -39.738492     -1081.3393
   1   1.0000      -3.141329       -85.4799
   2   1.0000      -2.084857       -56.7318
   3   1.0000      -2.084857       -56.7318
   4   0.0000      -1.760173       -47.8968
   5   0.0000      -1.586274       -43.1647
   6   0.0000       0.355609         9.6766
   7   0.0000       0.460423        12.5287
   8   0.0000       0.467828        12.7302

MULLIKEN ATOMIC CHARGES AND SPIN POPULATIONS
--------------------------------------------
   0 Na:    1.000000    2.000000
Sum of atomic charges         :    1.0000000

LOEWDIN ATOMIC CHARGES AND SPIN POPULATIONS
-------------------------------------------
   0 Na:    1.000000    2.000000

FINAL SINGLE POINT ENERGY      -160.802609690516

DIPOLE MOMENT
-------------
                                X             Y             Z
Electronic contribution:      0.00000      -0.00000      -0.00000
Nuclear contribution   :      0.00000       0.00000       0.00000
                        -----------------------------------------
Total Dipole Moment    :      0.00000      -0.00000      -0.00000
                        -----------------------------------------
Magnitude (a.u.)       :      0.00000
Magnitude (Debye)      :      0.00000

Rotational constants in cm-1:     0.000000     0.000000     0.000000
Rotational constants in MHz :     0.000000     0.000000     0.000000

                             ****ORCA TERMINATED NORMALLY****
TOTAL RUN TIME: 0 days 0 hours 4 minutes 5 seconds 662 msec
