                         Program Version 4.2.0 -  RELEASE  -
|  1> ! wB97M-V ano-pVQZ VeryTightSCF KeepDens Pal4
|  2>
|  3> %maxcore 8000
|  4>
|  5> %scf ConvForced true end
|  6>
|  7> * int 1 1
|  8> Na  0  0  0  0.00000000  0.00000000  0.00000000  Z=11.00
|  9> *
| 10>
| 11>                          ****END OF INPUT****

CARTESIAN COORDINATES (ANGSTROEM)
---------------------------------
  Na     0.000000    0.000000    0.000000

 Total Charge           Charge          ....    1
 Multiplicity           Mult            ....    1
 Number of Electrons    NEL             ....   10
 Basis Dimension        Dim             ....   32

ORBITAL ENERGIES
----------------

  NO   OCC          E(Eh)            E(eV)
   0   2.0000     -38.991297     -1061.0071
   1   2.0000      -2.654547       -72.2339
   2   2.0000      -1.556154       -42.3451
   3   2.0000      -1.556154       -42.3451
   4   2.0000      -1.556154       -42.3451
   5   0.0000      -0.217171        -5.9095
   6   0.0000       0.804193        21.8832
   7   0.0000       0.804193        21.8832
   8   0.0000       0.804193        21.8832
   9   0.0000       0.851828        23.1794

MULLIKEN ATOMIC CHARGES
-----------------------
   0 Na:    1.000000
Sum of atomic charges:    1.0000000

LOEWDIN ATOMIC CHARGES
----------------------
   0 Na:    1.000000

FINAL SINGLE POINT ENERGY      -162.076459255322

DIPOLE MOMENT
-------------
                                X             Y             Z
Electronic contribution:      0.00000       0.00000       0.00000
Nuclear contribution   :      0.00000       0.00000       0.00000
                        -----------------------------------------
Total Dipole Moment    :      0.00000       0.00000       0.00000
                        -----------------------------------------
Magnitude (a.u.)       :      0.00000
Magnitude (Debye)      :      0.00000

Rotational constants in cm-1:     0.000000     0.000000     0.000000
Rotational constants in MHz :     0.000000     0.000000     0.000000

                             ****ORCA TERMINATED NORMALLY****
TOTAL RUN TIME: 0 days 0 hours 2 minutes 21 seconds 664 msec
