                         Program Version 4.2.0 -  RELEASE  -
|  1> # neb-0
|  2> ! BP86 D3 Def2-TZVP SP Grid4 TightSCF CPCM(water)
|  3>
|  4> %pal
|  5>     nprocs 4
|  6>  end
|  7>
|  8> %cpcm
|  9> smd true
| 10> SMDsolvent "water"
| 11> end
| 12>
| 13>
| 14>
| 15> *xyz -1 1
| 16> B 3.05495  5.38999  5.5298
| 17> C 4.34528  5.52832  1.93888
| 18> H 3.20539  6.60048  5.37104
| 19> H 1.92704  5.13131  5.9609
| 20> H 3.88266  4.94664  6.32833
| 21> H 3.21223  4.8632  4.4156
| 22> O 4.02066  4.41381  1.74534
| 23> O 4.64708  6.64588  2.1399
| 24> O 2.56592  7.94495  7.6808
| 25> H 3.3278  7.57487  8.22165
| 26> H 2.71393  7.53665  6.79237
| 27> *
| 28>
| 29>                          ****END OF INPUT****

CARTESIAN COORDINATES (ANGSTROEM)
---------------------------------
  B      3.054950    5.389990    5.529800
  C      4.345280    5.528320    1.938880
  H      3.205390    6.600480    5.371040
  H      1.927040    5.131310    5.960900
  H      3.882660    4.946640    6.328330
  H      3.212230    4.863200    4.415600
  O      4.020660    4.413810    1.745340
  O      4.647080    6.645880    2.139900
  O      2.565920    7.944950    7.680800
  H      3.327800    7.574870    8.221650
  H      2.713930    7.536650    6.792370

 Total Charge           Charge          ....   -1
 Multiplicity           Mult            ....    1
 Number of Electrons    NEL             ....   42
 Basis Dimension        Dim             ....  191

ORBITAL ENERGIES
----------------

  NO   OCC          E(Eh)            E(eV)
   0   2.0000     -18.842423      -512.7284
   1   2.0000     -18.841722      -512.7093
   2   2.0000     -18.760601      -510.5019
   3   2.0000     -10.070039      -274.0197
   4   2.0000      -6.424499      -174.8195
   5   2.0000      -1.058482       -28.8028
   6   2.0000      -1.022174       -27.8148
   7   2.0000      -0.905461       -24.6389
   8   2.0000      -0.505985       -13.7686
   9   2.0000      -0.463692       -12.6177
  10   2.0000      -0.458701       -12.4819
  11   2.0000      -0.455406       -12.3922
  12   2.0000      -0.455005       -12.3813
  13   2.0000      -0.423838       -11.5332
  14   2.0000      -0.340864        -9.2754
  15   2.0000      -0.327063        -8.8998
  16   2.0000      -0.326953        -8.8968
  17   2.0000      -0.262150        -7.1335
  18   2.0000      -0.251151        -6.8342
  19   2.0000      -0.244270        -6.6469
  20   2.0000      -0.240896        -6.5551
  21   0.0000      -0.012455        -0.3389
  22   0.0000      -0.011175        -0.3041
  23   0.0000       0.006472         0.1761
  24   0.0000       0.027518         0.7488
  25   0.0000       0.068523         1.8646

MULLIKEN ATOMIC CHARGES
-----------------------
   0 B :   -0.476812
   1 C :    0.422752
   2 H :   -0.129344
   3 H :   -0.117864
   4 H :   -0.120543
   5 H :   -0.137424
   6 O :   -0.212964
   7 O :   -0.209072
   8 O :   -0.730853
   9 H :    0.372241
  10 H :    0.339883
Sum of atomic charges:   -1.0000000

LOEWDIN ATOMIC CHARGES
----------------------
   0 B :   -0.996520
   1 C :   -0.397949
   2 H :    0.016421
   3 H :    0.006312
   4 H :    0.006206
   5 H :    0.016216
   6 O :    0.189120
   7 O :    0.194157
   8 O :   -0.390010
   9 H :    0.199567
  10 H :    0.156481

  Mayer bond orders larger than 0.100000
B(  0-B ,  2-H ) :   0.9312 B(  0-B ,  3-H ) :   0.9795 B(  0-B ,  4-H ) :   0.9812
B(  0-B ,  5-H ) :   0.9600 B(  1-C ,  6-O ) :   2.1070 B(  1-C ,  7-O ) :   2.1123
B(  6-O ,  7-O ) :   0.2361 B(  8-O ,  9-H ) :   0.8691 B(  8-O , 10-H ) :   0.8417

Dispersion correction           -0.006705274
FINAL SINGLE POINT ENERGY      -292.529318467422

DIPOLE MOMENT
-------------
                                X             Y             Z
Electronic contribution:      5.09504      -0.27709     -14.55675
Nuclear contribution   :     -3.13135       0.80269      11.24356
                        -----------------------------------------
Total Dipole Moment    :      1.96369       0.52560      -3.31319
                        -----------------------------------------
Magnitude (a.u.)       :      3.88710
Magnitude (Debye)      :      9.88023

Rotational constants in cm-1:     0.242706     0.029354     0.026485
Rotational constants in MHz :  7276.132009   880.001774   793.990801

                             ****ORCA TERMINATED NORMALLY****
TOTAL RUN TIME: 0 days 0 hours 0 minutes 10 seconds 536 msec
