                         Program Version 4.2.0 -  RELEASE  -
|  1> ! FREQ
|  2> ! BP86 D3BJ def2-SVP RI def2/J CPCM(water)
|  3> ! TightSCF Grid4 NoFinalGrid
|  4>
|  5> %pal nprocs 8 end
|  6> %maxcore 8000
|  7>
|  8> *xyz  0  1
|  9>   O  -1.79629905071218      0.67255303694794      0.60888713267128
| 10>   Al -1.31625104738938      1.85298117576154      1.80710426099375
| 11>   O  -0.53753259112252      3.35535956566456      0.84157568532945
| 12>   O   0.06381282683087      1.56825305406179      2.84628982541623
| 13>   O  -2.67432517453196      2.61717247360663      2.60269925043752
| 14>   H  -3.50374092052330      2.65604749429255      2.09493983642631
| 15>   H   0.01828394065398      0.75463121523362      3.37941064228519
| 16>   H  -1.07114180830772      4.17196401677699      0.95223398156496
| 17>   H  -1.07020587451760      0.27013099509578      0.09929337389267
| 18>   H   0.36987969961985      3.59536697255853      1.12867601098259
| 19> *
| 20>
| 21>                          ****END OF INPUT****

CARTESIAN COORDINATES (ANGSTROEM)
---------------------------------
  O     -1.796299    0.672553    0.608887
  Al    -1.316251    1.852981    1.807104
  O     -0.537533    3.355360    0.841576
  O      0.063813    1.568253    2.846290
  O     -2.674325    2.617172    2.602699
  H     -3.503741    2.656047    2.094940
  H      0.018284    0.754631    3.379411
  H     -1.071142    4.171964    0.952234
  H     -1.070206    0.270131    0.099293
  H      0.369880    3.595367    1.128676

 Total Charge           Charge          ....    0
 Multiplicity           Mult            ....    1
 Number of Electrons    NEL             ....   50
 Basis Dimension        Dim             ....   99

ORBITAL ENERGIES
----------------

  NO   OCC          E(Eh)            E(eV)
   0   2.0000     -55.399078     -1507.4855
   1   2.0000     -18.847892      -512.8772
   2   2.0000     -18.735168      -509.8099
   3   2.0000     -18.734960      -509.8042
   4   2.0000     -18.732607      -509.7402
   5   2.0000      -3.911732      -106.4436
   6   2.0000      -2.520453       -68.5850
   7   2.0000      -2.516501       -68.4775
   8   2.0000      -2.516010       -68.4641
   9   2.0000      -0.973309       -26.4851
  10   2.0000      -0.844965       -22.9927
  11   2.0000      -0.834606       -22.7108
  12   2.0000      -0.832809       -22.6619
  13   2.0000      -0.531089       -14.4517
  14   2.0000      -0.456892       -12.4327
  15   2.0000      -0.410069       -11.1586
  16   2.0000      -0.400274       -10.8920
  17   2.0000      -0.387801       -10.5526
  18   2.0000      -0.335575        -9.1315
  19   2.0000      -0.284614        -7.7447
  20   2.0000      -0.262160        -7.1337
  21   2.0000      -0.260369        -7.0850
  22   2.0000      -0.240989        -6.5576
  23   2.0000      -0.235512        -6.4086
  24   2.0000      -0.228623        -6.2211
  25   0.0000      -0.006473        -0.1761
  26   0.0000       0.043697         1.1891
  27   0.0000       0.070815         1.9270
  28   0.0000       0.076419         2.0795
  29   0.0000       0.100178         2.7260

MULLIKEN ATOMIC CHARGES
-----------------------
   0 O :   -0.512945
   1 Al:    0.636344
   2 O :   -0.227000
   3 O :   -0.519363
   4 O :   -0.522379
   5 H :    0.204163
   6 H :    0.209114
   7 H :    0.259108
   8 H :    0.207873
   9 H :    0.265085
Sum of atomic charges:    0.0000000

LOEWDIN ATOMIC CHARGES
----------------------
   0 O :   -0.295512
   1 Al:    0.229182
   2 O :    0.073713
   3 O :   -0.298490
   4 O :   -0.299043
   5 H :    0.091269
   6 H :    0.092503
   7 H :    0.155125
   8 H :    0.092196
   9 H :    0.159056

  Mayer bond orders larger than 0.100000
B(  0-O ,  1-Al) :   1.1033 B(  0-O ,  8-H ) :   0.9554 B(  1-Al,  2-O ) :   0.4792
B(  1-Al,  3-O ) :   1.0865 B(  1-Al,  4-O ) :   1.0563 B(  2-O ,  7-H ) :   0.9300
B(  2-O ,  9-H ) :   0.9309 B(  3-O ,  6-H ) :   0.9549 B(  4-O ,  5-H ) :   0.9557

Dispersion correction           -0.009432092
FINAL SINGLE POINT ENERGY      -546.282095976562

DIPOLE MOMENT
-------------
                                X             Y             Z
Electronic contribution:      0.03158      -0.06100      -0.05671
Nuclear contribution   :      0.98827       1.45846      -1.03392
                        -----------------------------------------
Total Dipole Moment    :      1.01984       1.39746      -1.09063
                        -----------------------------------------
Magnitude (a.u.)       :      2.04510
Magnitude (Debye)      :      5.19823

Dispersion correction in the Hessian             ... done   (      0.3 sec)

VIBRATIONAL FREQUENCIES
-----------------------

Scaling factor for frequencies =  1.000000000  (already applied!)

   0:         0.00 cm**-1
   1:         0.00 cm**-1
   2:         0.00 cm**-1
   3:         0.00 cm**-1
   4:         0.00 cm**-1
   5:         0.00 cm**-1
   6:      -219.64 cm**-1 ***imaginary mode***
   7:       108.77 cm**-1
   8:       138.99 cm**-1
   9:       156.52 cm**-1
  10:       187.78 cm**-1
  11:       195.62 cm**-1
  12:       227.57 cm**-1
  13:       229.53 cm**-1
  14:       257.70 cm**-1
  15:       406.08 cm**-1
  16:       465.72 cm**-1
  17:       592.40 cm**-1
  18:       630.90 cm**-1
  19:       651.08 cm**-1
  20:       663.26 cm**-1
  21:       685.28 cm**-1
  22:       822.72 cm**-1
  23:       834.18 cm**-1
  24:      1520.51 cm**-1
  25:      3628.61 cm**-1
  26:      3699.37 cm**-1
  27:      3741.35 cm**-1
  28:      3747.94 cm**-1
  29:      3751.71 cm**-1

IR SPECTRUM
-----------

 Mode    freq (cm**-1)   T**2         TX         TY         TZ
-------------------------------------------------------------------
   7:       108.77  120.311250  ( -5.126040  -5.792239   7.777206)
   8:       138.99  116.620544  ( -2.173788   8.123444  -6.775311)
   9:       156.52  118.996255  (  4.686864   1.776555  -9.688829)
  10:       187.78   74.657984  ( -0.446907   4.727466   7.218679)
  11:       195.62   67.839221  (  3.310357  -6.628421  -3.597887)
  12:       227.57  132.967519  (  3.592989 -10.922760   0.866750)
  13:       229.53  149.863879  (  5.305869   7.606747  -7.990559)
  14:       257.70   41.498088  (  2.183568  -2.819494   5.364753)
  15:       406.08  331.684541  ( -3.549376  -6.616110  16.592575)
  16:       465.72   14.341666  ( -0.141996  -3.708712   0.752968)
  17:       592.40   19.542636  (  1.470922  -3.622783  -2.062636)
  18:       630.90   25.302939  ( -0.728133  -2.808937   4.108848)
  19:       651.08  234.722822  ( 15.188140  -1.534421  -1.299530)
  20:       663.26  218.944119  ( -1.969179  -8.951364 -11.616348)
  21:       685.28  200.279112  (  9.764055   8.269945   6.045688)
  22:       822.72  170.055937  (  4.142774  -7.375274  -9.924651)
  23:       834.18  208.935253  ( 12.289001  -2.220331   7.279137)
  24:      1520.51  148.168526  (  4.361649  11.180418   2.035385)
  25:      3628.61  126.176348  (  3.396061  10.391398   2.581079)
  26:      3699.37  272.465380  ( 15.293858  -5.900630   1.935422)
  27:      3741.35   63.024546  ( -4.069637   3.401443   5.907012)
  28:      3747.94   73.589140  ( -2.253013   6.727155  -4.822703)
  29:      3751.71   61.142422  (  7.291651  -1.360672   2.474432)

--------------------------
THERMOCHEMISTRY AT 298.15K
--------------------------

Temperature         ... 298.15 K
Pressure            ... 1.00 atm
Total Mass          ... 96.02 AMU

Throughout the following assumptions are being made:
  (1) The electronic state is orbitally nondegenerate
  (2) There are no thermally accessible electronically excited states
  (3) Hindered rotations indicated by low frequency modes are not
      treated as such but are treated as vibrations and this may
      cause some error
  (4) All equations used are the standard statistical mechanics
      equations for an ideal gas
  (5) All vibrations are strictly harmonic

freq.     108.77  E(vib)   ...       0.45
freq.     138.99  E(vib)   ...       0.42
freq.     156.52  E(vib)   ...       0.40
freq.     187.78  E(vib)   ...       0.36
freq.     195.62  E(vib)   ...       0.36
freq.     227.57  E(vib)   ...       0.33
freq.     229.53  E(vib)   ...       0.32
freq.     257.70  E(vib)   ...       0.30
freq.     406.08  E(vib)   ...       0.19
freq.     465.72  E(vib)   ...       0.16
freq.     592.40  E(vib)   ...       0.10
freq.     630.90  E(vib)   ...       0.09
freq.     651.08  E(vib)   ...       0.08
freq.     663.26  E(vib)   ...       0.08
freq.     685.28  E(vib)   ...       0.07
freq.     822.72  E(vib)   ...       0.05
freq.     834.18  E(vib)   ...       0.04
freq.    1520.51  E(vib)   ...       0.00
freq.    3628.61  E(vib)   ...       0.00
freq.    3699.37  E(vib)   ...       0.00
freq.    3741.35  E(vib)   ...       0.00
freq.    3747.94  E(vib)   ...       0.00
freq.    3751.71  E(vib)   ...       0.00

------------
INNER ENERGY
------------

The inner energy is: U= E(el) + E(ZPE) + E(vib) + E(rot) + E(trans)
    E(el)   - is the total energy from the electronic structure calculation
              = E(kin-el) + E(nuc-el) + E(el-el) + E(nuc-nuc)
    E(ZPE)  - the the zero temperature vibrational energy from the frequency calculation
    E(vib)  - the the finite temperature correction to E(ZPE) due to population
              of excited vibrational states
    E(rot)  - is the rotational thermal energy
    E(trans)- is the translational thermal energy

Summary of contributions to the inner energy U:
Electronic energy                ...   -546.28209598 Eh
Zero point energy                ...      0.06229324 Eh      39.09 kcal/mol
Thermal vibrational correction   ...      0.00606003 Eh       3.80 kcal/mol
Thermal rotational correction    ...      0.00141627 Eh       0.89 kcal/mol
Thermal translational correction ...      0.00141627 Eh       0.89 kcal/mol
-----------------------------------------------------------------------
Total thermal energy                   -546.21091017 Eh

Summary of corrections to the electronic energy:
(perhaps to be used in another calculation)
Total thermal correction                  0.00889257 Eh       5.58 kcal/mol
Non-thermal (ZPE) correction              0.06229324 Eh      39.09 kcal/mol
-----------------------------------------------------------------------
Total correction                          0.07118581 Eh      44.67 kcal/mol

--------
ENTHALPY
--------

The enthalpy is H = U + kB*T
                kB is Boltzmann's constant
Total free energy                 ...   -546.21091017 Eh
Thermal Enthalpy correction       ...      0.00094421 Eh       0.59 kcal/mol
-----------------------------------------------------------------------
Total Enthalpy                    ...   -546.20996596 Eh

Note: Only C1 symmetry has been detected, increase convergence thresholds
      if your molecule has a higher symmetry. Symmetry factor of 1.0 is
      used for the rotational entropy correction.

Note: Rotational entropy computed according to Herzberg
Infrared and Raman Spectra, Chapter V,1, Van Nostrand Reinhold, 1945
Point Group:  C1, Symmetry Number:   1
Rotational constants in cm-1:     0.114509     0.107734     0.103036

Vibrational entropy computed according to the QRRHO of S. Grimme
Chem.Eur.J. 2012 18 9955

-------
ENTROPY
-------

The entropy contributions are T*S = T*(S(el)+S(vib)+S(rot)+S(trans))
     S(el)   - electronic entropy
     S(vib)  - vibrational entropy
     S(rot)  - rotational entropy
     S(trans)- translational entropy
The entropies will be listed as mutliplied by the temperature to get
units of energy

Electronic entropy                ...      0.00000000 Eh      0.00 kcal/mol
Vibrational entropy               ...      0.01058555 Eh      6.64 kcal/mol
Rotational entropy                ...      0.01265865 Eh      7.94 kcal/mol
Translational entropy             ...      0.01881369 Eh     11.81 kcal/mol
-----------------------------------------------------------------------
Final entropy term                ...      0.04205789 Eh     26.39 kcal/mol

In case the symmetry of your molecule has not been determined correctly
or in case you have a reason to use a different symmetry number we print
out the resulting rotational entropy values for sn=1,12 :
 --------------------------------------------------------
|  sn= 1 | S(rot)=       0.01265865 Eh      7.94 kcal/mol|
|  sn= 2 | S(rot)=       0.01200419 Eh      7.53 kcal/mol|
|  sn= 3 | S(rot)=       0.01162136 Eh      7.29 kcal/mol|
|  sn= 4 | S(rot)=       0.01134974 Eh      7.12 kcal/mol|
|  sn= 5 | S(rot)=       0.01113905 Eh      6.99 kcal/mol|
|  sn= 6 | S(rot)=       0.01096690 Eh      6.88 kcal/mol|
|  sn= 7 | S(rot)=       0.01082136 Eh      6.79 kcal/mol|
|  sn= 8 | S(rot)=       0.01069528 Eh      6.71 kcal/mol|
|  sn= 9 | S(rot)=       0.01058407 Eh      6.64 kcal/mol|
|  sn=10 | S(rot)=       0.01048459 Eh      6.58 kcal/mol|
|  sn=11 | S(rot)=       0.01039460 Eh      6.52 kcal/mol|
|  sn=12 | S(rot)=       0.01031245 Eh      6.47 kcal/mol|
 --------------------------------------------------------

-------------------
GIBBS FREE ENERGY
-------------------

The Gibbs free energy is G = H - T*S

Total enthalpy                    ...   -546.20996596 Eh
Total entropy correction          ...     -0.04205789 Eh    -26.39 kcal/mol
-----------------------------------------------------------------------
Final Gibbs free energy         ...   -546.25202385 Eh

For completeness - the Gibbs free energy minus the electronic energy
G-E(el)                           ...      0.03007213 Eh     18.87 kcal/mol

                             ****ORCA TERMINATED NORMALLY****
TOTAL RUN TIME: 0 days 0 hours 0 minutes 27 seconds 934 msec
