                         Program Version 4.2.0 -  RELEASE  -
|  1> ! FREQ
|  2> ! BP86 D3BJ def2-SVP RI def2/J
|  3> ! TightSCF Grid4 NoFinalGrid
|  4>
|  5> %pal nprocs 8 end
|  6> %maxcore 8000
|  7>
|  8> *xyz  0  1
|  9>   O  -1.84932789197074      0.63052222667802      0.51534002001709
| 10>   Al -1.29480115210269      1.80190887760501      1.65627203170722
| 11>   O  -0.47247976505809      3.44575146580924      0.86262705303980
| 12>   O   0.13506320897087      1.59340319039571      2.63271331490470
| 13>   O  -2.54455046676465      2.86825347705433      2.27716692309223
| 14>   H  -3.48257710665052      2.67661577248835      2.12240784103200
| 15>   H   0.16156621058653      1.00152321256661      3.39922162012080
| 16>   H  -1.21757548538303      3.97445177136880      1.25817080464665
| 17>   H  -1.23264514820259     -0.02103901559875      0.14694804319510
| 18>   H   0.27980759657494      3.54306902163264      1.49024234824438
| 19> *
| 20>
| 21>                          ****END OF INPUT****

CARTESIAN COORDINATES (ANGSTROEM)
---------------------------------
  O     -1.849328    0.630522    0.515340
  Al    -1.294801    1.801909    1.656272
  O     -0.472480    3.445751    0.862627
  O      0.135063    1.593403    2.632713
  O     -2.544550    2.868253    2.277167
  H     -3.482577    2.676616    2.122408
  H      0.161566    1.001523    3.399222
  H     -1.217575    3.974452    1.258171
  H     -1.232645   -0.021039    0.146948
  H      0.279808    3.543069    1.490242

 Total Charge           Charge          ....    0
 Multiplicity           Mult            ....    1
 Number of Electrons    NEL             ....   50
 Basis Dimension        Dim             ....   99

ORBITAL ENERGIES
----------------

  NO   OCC          E(Eh)            E(eV)
   0   2.0000     -55.405963     -1507.6729
   1   2.0000     -18.845930      -512.8238
   2   2.0000     -18.740734      -509.9613
   3   2.0000     -18.740344      -509.9507
   4   2.0000     -18.736219      -509.8384
   5   2.0000      -3.918926      -106.6394
   6   2.0000      -2.527880       -68.7871
   7   2.0000      -2.523329       -68.6633
   8   2.0000      -2.523302       -68.6625
   9   2.0000      -0.976528       -26.5727
  10   2.0000      -0.849715       -23.1219
  11   2.0000      -0.841632       -22.9020
  12   2.0000      -0.837948       -22.8017
  13   2.0000      -0.535814       -14.5802
  14   2.0000      -0.448651       -12.2084
  15   2.0000      -0.416283       -11.3276
  16   2.0000      -0.406972       -11.0743
  17   2.0000      -0.396555       -10.7908
  18   2.0000      -0.340195        -9.2572
  19   2.0000      -0.284308        -7.7364
  20   2.0000      -0.267513        -7.2794
  21   2.0000      -0.259003        -7.0478
  22   2.0000      -0.243365        -6.6223
  23   2.0000      -0.240078        -6.5328
  24   2.0000      -0.229242        -6.2380
  25   0.0000      -0.016174        -0.4401
  26   0.0000       0.036321         0.9883
  27   0.0000       0.059206         1.6111
  28   0.0000       0.065242         1.7753
  29   0.0000       0.099112         2.6970

MULLIKEN ATOMIC CHARGES
-----------------------
   0 O :   -0.440595
   1 Al:    0.633694
   2 O :   -0.202986
   3 O :   -0.480334
   4 O :   -0.488954
   5 H :    0.190527
   6 H :    0.187818
   7 H :    0.200790
   8 H :    0.185307
   9 H :    0.214734
Sum of atomic charges:   -0.0000000

LOEWDIN ATOMIC CHARGES
----------------------
   0 O :   -0.239322
   1 Al:    0.251910
   2 O :    0.033200
   3 O :   -0.265218
   4 O :   -0.266508
   5 H :    0.084985
   6 H :    0.082462
   7 H :    0.111536
   8 H :    0.083594
   9 H :    0.123360

  Mayer bond orders larger than 0.100000
B(  0-O ,  1-Al) :   1.1655 B(  0-O ,  8-H ) :   0.9637 B(  1-Al,  2-O ) :   0.4457
B(  1-Al,  3-O ) :   1.0867 B(  1-Al,  4-O ) :   0.9957 B(  2-O ,  7-H ) :   0.9089
B(  2-O ,  9-H ) :   0.9438 B(  3-O ,  6-H ) :   0.9627 B(  4-O ,  5-H ) :   0.9611
B(  4-O ,  7-H ) :   0.1125

Dispersion correction           -0.009532894
FINAL SINGLE POINT ENERGY      -546.253504658102

DIPOLE MOMENT
-------------
                                X             Y             Z
Electronic contribution:     -0.24651      -0.86129      -0.14360
Nuclear contribution   :      0.60179       1.11109       0.33287
                        -----------------------------------------
Total Dipole Moment    :      0.35528       0.24980       0.18928
                        -----------------------------------------
Magnitude (a.u.)       :      0.47376
Magnitude (Debye)      :      1.20421

Dispersion correction in the Hessian             ... done   (      0.3 sec)

VIBRATIONAL FREQUENCIES
-----------------------

Scaling factor for frequencies =  1.000000000  (already applied!)

   0:         0.00 cm**-1
   1:         0.00 cm**-1
   2:         0.00 cm**-1
   3:         0.00 cm**-1
   4:         0.00 cm**-1
   5:         0.00 cm**-1
   6:        66.35 cm**-1
   7:       141.60 cm**-1
   8:       195.61 cm**-1
   9:       217.69 cm**-1
  10:       233.53 cm**-1
  11:       269.43 cm**-1
  12:       291.43 cm**-1
  13:       295.18 cm**-1
  14:       426.16 cm**-1
  15:       445.55 cm**-1
  16:       588.43 cm**-1
  17:       612.29 cm**-1
  18:       638.17 cm**-1
  19:       673.00 cm**-1
  20:       679.99 cm**-1
  21:       762.58 cm**-1
  22:       881.75 cm**-1
  23:       890.37 cm**-1
  24:      1561.54 cm**-1
  25:      3414.88 cm**-1
  26:      3617.40 cm**-1
  27:      3806.79 cm**-1
  28:      3807.27 cm**-1
  29:      3821.08 cm**-1

IR SPECTRUM
-----------

 Mode    freq (cm**-1)   T**2         TX         TY         TZ
-------------------------------------------------------------------
   6:        66.35    3.050907  (  1.489039   0.307108   0.859856)
   7:       141.60   18.867461  (  1.053705  -4.198174  -0.364012)
   8:       195.61  166.745835  (  5.876123  -3.108872 -11.070317)
   9:       217.69    2.897722  ( -1.389885  -0.806075  -0.562304)
  10:       233.53   25.387036  (  3.154995   3.639833   1.478058)
  11:       269.43  127.569725  ( -2.239560  -6.649622   8.850798)
  12:       291.43   60.499135  (  1.599867  -7.536493   1.068096)
  13:       295.18   23.845433  ( -0.068466  -4.514071   1.861158)
  14:       426.16   66.884847  ( -3.688096  -4.768915   5.526323)
  15:       445.55   49.581792  (  6.262898  -0.871428   3.098147)
  16:       588.43   44.438608  (  2.602858  -5.932438   1.571596)
  17:       612.29  267.485888  ( 14.515844   4.665941   5.916515)
  18:       638.17  123.492244  (  5.133810  -6.509944  -7.399788)
  19:       673.00   34.495420  ( -1.841603  -3.934078   3.953094)
  20:       679.99  240.335547  (  5.113346  14.314093  -3.048930)
  21:       762.58  228.613140  ( -0.943833 -13.841160   6.012039)
  22:       881.75  149.753724  ( 11.449317   1.010428   4.200702)
  23:       890.37  130.790599  (  4.586313  -2.732764 -10.113770)
  24:      1561.54   61.274730  (  1.442553   5.291694   5.584957)
  25:      3414.88  160.196477  (-10.689691   2.807263   6.168165)
  26:      3617.40  132.263972  ( 10.423714  -0.890019   4.776821)
  27:      3806.79   41.874078  (  1.339492  -4.862373  -4.054278)
  28:      3807.27   55.508191  (  7.408153  -0.791479  -0.032024)
  29:      3821.08   49.807596  ( -1.904069   3.755598  -5.663709)

--------------------------
THERMOCHEMISTRY AT 298.15K
--------------------------

Temperature         ... 298.15 K
Pressure            ... 1.00 atm
Total Mass          ... 96.02 AMU

Throughout the following assumptions are being made:
  (1) The electronic state is orbitally nondegenerate
  (2) There are no thermally accessible electronically excited states
  (3) Hindered rotations indicated by low frequency modes are not
      treated as such but are treated as vibrations and this may
      cause some error
  (4) All equations used are the standard statistical mechanics
      equations for an ideal gas
  (5) All vibrations are strictly harmonic

freq.      66.35  E(vib)   ...       0.50
freq.     141.60  E(vib)   ...       0.41
freq.     195.61  E(vib)   ...       0.36
freq.     217.69  E(vib)   ...       0.33
freq.     233.53  E(vib)   ...       0.32
freq.     269.43  E(vib)   ...       0.29
freq.     291.43  E(vib)   ...       0.27
freq.     295.18  E(vib)   ...       0.27
freq.     426.16  E(vib)   ...       0.18
freq.     445.55  E(vib)   ...       0.17
freq.     588.43  E(vib)   ...       0.10
freq.     612.29  E(vib)   ...       0.10
freq.     638.17  E(vib)   ...       0.09
freq.     673.00  E(vib)   ...       0.08
freq.     679.99  E(vib)   ...       0.08
freq.     762.58  E(vib)   ...       0.06
freq.     881.75  E(vib)   ...       0.04
freq.     890.37  E(vib)   ...       0.04
freq.    1561.54  E(vib)   ...       0.00
freq.    3414.88  E(vib)   ...       0.00
freq.    3617.40  E(vib)   ...       0.00
freq.    3806.79  E(vib)   ...       0.00
freq.    3807.27  E(vib)   ...       0.00
freq.    3821.08  E(vib)   ...       0.00

------------
INNER ENERGY
------------

The inner energy is: U= E(el) + E(ZPE) + E(vib) + E(rot) + E(trans)
    E(el)   - is the total energy from the electronic structure calculation
              = E(kin-el) + E(nuc-el) + E(el-el) + E(nuc-nuc)
    E(ZPE)  - the the zero temperature vibrational energy from the frequency calculation
    E(vib)  - the the finite temperature correction to E(ZPE) due to population
              of excited vibrational states
    E(rot)  - is the rotational thermal energy
    E(trans)- is the translational thermal energy

Summary of contributions to the inner energy U:
Electronic energy                ...   -546.25350466 Eh
Zero point energy                ...      0.06455884 Eh      40.51 kcal/mol
Thermal vibrational correction   ...      0.00585240 Eh       3.67 kcal/mol
Thermal rotational correction    ...      0.00141627 Eh       0.89 kcal/mol
Thermal translational correction ...      0.00141627 Eh       0.89 kcal/mol
-----------------------------------------------------------------------
Total thermal energy                   -546.18026088 Eh

Summary of corrections to the electronic energy:
(perhaps to be used in another calculation)
Total thermal correction                  0.00868494 Eh       5.45 kcal/mol
Non-thermal (ZPE) correction              0.06455884 Eh      40.51 kcal/mol
-----------------------------------------------------------------------
Total correction                          0.07324378 Eh      45.96 kcal/mol

--------
ENTHALPY
--------

The enthalpy is H = U + kB*T
                kB is Boltzmann's constant
Total free energy                 ...   -546.18026088 Eh
Thermal Enthalpy correction       ...      0.00094421 Eh       0.59 kcal/mol
-----------------------------------------------------------------------
Total Enthalpy                    ...   -546.17931667 Eh

Note: Only C1 symmetry has been detected, increase convergence thresholds
      if your molecule has a higher symmetry. Symmetry factor of 1.0 is
      used for the rotational entropy correction.

Note: Rotational entropy computed according to Herzberg
Infrared and Raman Spectra, Chapter V,1, Van Nostrand Reinhold, 1945
Point Group:  C1, Symmetry Number:   1
Rotational constants in cm-1:     0.125806     0.113298     0.094131

Vibrational entropy computed according to the QRRHO of S. Grimme
Chem.Eur.J. 2012 18 9955

-------
ENTROPY
-------

The entropy contributions are T*S = T*(S(el)+S(vib)+S(rot)+S(trans))
     S(el)   - electronic entropy
     S(vib)  - vibrational entropy
     S(rot)  - rotational entropy
     S(trans)- translational entropy
The entropies will be listed as mutliplied by the temperature to get
units of energy

Electronic entropy                ...      0.00000000 Eh      0.00 kcal/mol
Vibrational entropy               ...      0.00992029 Eh      6.23 kcal/mol
Rotational entropy                ...      0.01263313 Eh      7.93 kcal/mol
Translational entropy             ...      0.01881369 Eh     11.81 kcal/mol
-----------------------------------------------------------------------
Final entropy term                ...      0.04136711 Eh     25.96 kcal/mol

In case the symmetry of your molecule has not been determined correctly
or in case you have a reason to use a different symmetry number we print
out the resulting rotational entropy values for sn=1,12 :
 --------------------------------------------------------
|  sn= 1 | S(rot)=       0.01263313 Eh      7.93 kcal/mol|
|  sn= 2 | S(rot)=       0.01197867 Eh      7.52 kcal/mol|
|  sn= 3 | S(rot)=       0.01159584 Eh      7.28 kcal/mol|
|  sn= 4 | S(rot)=       0.01132422 Eh      7.11 kcal/mol|
|  sn= 5 | S(rot)=       0.01111353 Eh      6.97 kcal/mol|
|  sn= 6 | S(rot)=       0.01094139 Eh      6.87 kcal/mol|
|  sn= 7 | S(rot)=       0.01079584 Eh      6.77 kcal/mol|
|  sn= 8 | S(rot)=       0.01066976 Eh      6.70 kcal/mol|
|  sn= 9 | S(rot)=       0.01055855 Eh      6.63 kcal/mol|
|  sn=10 | S(rot)=       0.01045907 Eh      6.56 kcal/mol|
|  sn=11 | S(rot)=       0.01036908 Eh      6.51 kcal/mol|
|  sn=12 | S(rot)=       0.01028693 Eh      6.46 kcal/mol|
 --------------------------------------------------------

-------------------
GIBBS FREE ENERGY
-------------------

The Gibbs free energy is G = H - T*S

Total enthalpy                    ...   -546.17931667 Eh
Total entropy correction          ...     -0.04136711 Eh    -25.96 kcal/mol
-----------------------------------------------------------------------
Final Gibbs free energy         ...   -546.22068378 Eh

For completeness - the Gibbs free energy minus the electronic energy
G-E(el)                           ...      0.03282088 Eh     20.60 kcal/mol

                             ****ORCA TERMINATED NORMALLY****
TOTAL RUN TIME: 0 days 0 hours 0 minutes 37 seconds 627 msec
