   * xtb version 6.3.3 (5b13467) compiled by 'ehlert@majestix' on 2020-09-17
          program call               : /ihome/jkeith/amm503/codes/xtb-6.3.3/bin/xtb 5h2o.example.xyz --opt tight --gfn 2 --charge 0 --cycles 200
          number of atoms            :                    15
          number of electrons        :                    40
          charge                     :                     0
          spin                       :                   0.0

   ID    Z sym.   atoms
    1    8 O      1, 4, 7, 10, 13
    2    1 H      2, 3, 5, 6, 8, 9, 11, 12, 14, 15

          :  Hamiltonian                  GFN2-xTB          :
 * total energy  :   -25.4043390 Eh     change       -0.6004086E-12 Eh
 * total energy  :   -25.4061676 Eh     change       -0.1828600E-02 Eh
 * total energy  :   -25.4066691 Eh     change       -0.5014604E-03 Eh
 * total energy  :   -25.4069937 Eh     change       -0.3246207E-03 Eh
 * total energy  :   -25.4072355 Eh     change       -0.2418005E-03 Eh
 * total energy  :   -25.4074054 Eh     change       -0.1698853E-03 Eh
 * total energy  :   -25.4074842 Eh     change       -0.7879068E-04 Eh
 * total energy  :   -25.4075132 Eh     change       -0.2902613E-04 Eh
 * total energy  :   -25.4075356 Eh     change       -0.2246030E-04 Eh
 * total energy  :   -25.4075588 Eh     change       -0.2314547E-04 Eh
 * total energy  :   -25.4079233 Eh     change       -0.3498225E-05 Eh
 * total energy  :   -25.4079284 Eh     change       -0.5168368E-05 Eh
 * total energy  :   -25.4079314 Eh     change       -0.2956707E-05 Eh
 * total energy  :   -25.4079354 Eh     change       -0.4015413E-05 Eh
 * total energy  :   -25.4079368 Eh     change       -0.1410210E-05 Eh
 * total energy  :   -25.4079379 Eh     change       -0.1072771E-05 Eh
 * total energy  :   -25.4079397 Eh     change       -0.1810753E-05 Eh
 * total energy  :   -25.4079408 Eh     change       -0.1129668E-05 Eh
 * total energy  :   -25.4079418 Eh     change       -0.9402262E-06 Eh
   *** GEOMETRY OPTIMIZATION CONVERGED AFTER 73 ITERATIONS ***

 final structure:
================
15
 xtb: 6.3.3 (5b13467)
O        -1.06813862675493    1.98473376826692   -0.45928556418776
H        -0.47791381784413    2.66685016349781   -0.78274379810972
H        -0.97788715574838    1.23141428860964   -1.08554370609372
O        -0.75185728077921   -0.10390492300628   -2.11969118480369
H        -0.16388737168872   -0.75850551570489   -1.67756160128788
H        -1.55816171379962   -0.57583098001858   -2.33263972603686
O         1.48162815642984   -0.78498731341620    1.47403303619286
H         0.82570458942044   -0.07582516984902    1.65707220111269
H         1.53497934189082   -1.31220153826348    2.27240423327763
O        -0.46437178967112    1.00468185666292    1.96116646097853
H        -1.29964667490405    0.66638397774211    2.28787219619190
H        -0.67017674862268    1.42761114968812    1.09665736776545
O         0.83945964592067   -1.88224334934352   -0.89073464238511
H         1.05703305572344   -1.50343346076037   -0.01001763371444
H         1.67671427042990   -1.96813119410415   -1.34971502890329

          :  Hamiltonian                  GFN2-xTB          :
         :: total energy             -25.407941763948 Eh    ::
         :: gradient norm              0.000354429677 Eh/a0 ::
         :: HOMO-LUMO gap             12.342918797513 eV    ::
         :: SCC energy               -25.563220672384 Eh    ::
         :: -> dispersion             -0.004355844103 Eh    ::
         :: repulsion energy           0.155236242751 Eh    ::

    * Orbital Energies and Occupations

         #    Occupation            Energy/Eh            Energy/eV
      -------------------------------------------------------------
         1        2.0000           -0.6728722             -18.3098
       ...           ...                  ...                  ...
         8        2.0000           -0.5592975             -15.2193
         9        2.0000           -0.5580248             -15.1846
        10        2.0000           -0.5552580             -15.1093
        11        2.0000           -0.5251670             -14.2905
        12        2.0000           -0.5228302             -14.2269
        13        2.0000           -0.5002028             -13.6112
        14        2.0000           -0.4987114             -13.5706
        15        2.0000           -0.4856634             -13.2156
        16        2.0000           -0.4387519             -11.9390
        17        2.0000           -0.4377635             -11.9122
        18        2.0000           -0.4364042             -11.8752
        19        2.0000           -0.4355486             -11.8519
        20        2.0000           -0.4346508             -11.8275 (HOMO)
        21                          0.0189431               0.5155 (LUMO)
        22                          0.0794626               2.1623
        23                          0.0818712               2.2278
        24                          0.1638107               4.4575
        25                          0.1642881               4.4705
        26                          0.2854928               7.7687
        27                          0.2963996               8.0654
        28                          0.2990416               8.1373
        29                          0.3195003               8.6940
        30                          0.3217925               8.7564
      -------------------------------------------------------------
                  HL-Gap            0.4535939 Eh           12.3429 eV

     #   Z          covCN         q      C6AA      Î±(0)
     1   8 O        1.608    -0.609    25.414     6.804
     2   1 H        0.806     0.281     0.781     1.388
     3   1 H        0.802     0.330     0.639     1.255
     4   8 O        1.608    -0.611    25.452     6.809
     5   1 H        0.802     0.329     0.640     1.257
     6   1 H        0.806     0.279     0.786     1.393
     7   8 O        1.608    -0.609    25.415     6.804
     8   1 H        0.802     0.331     0.634     1.251
     9   1 H        0.806     0.278     0.790     1.396
    10   8 O        1.608    -0.612    25.470     6.811
    11   1 H        0.806     0.279     0.788     1.394
    12   1 H        0.802     0.330     0.638     1.255
    13   8 O        1.608    -0.608    25.375     6.799
    14   1 H        0.802     0.331     0.635     1.252
    15   1 H        0.805     0.281     0.781     1.388

Wiberg/Mayer (AO) data.
largest (>0.10) Wiberg bond orders for each atom

     #   Z sym  total        # sym  WBO       # sym  WBO       # sym  WBO
 ---------------------------------------------------------------------------
     1   8 O    1.873 --     2 H    0.919     3 H    0.825
     2   1 H    0.921 --     1 O    0.919
     3   1 H    0.891 --     1 O    0.825
     4   8 O    1.870 --     6 H    0.919     5 H    0.822
     5   1 H    0.892 --     4 O    0.822
     6   1 H    0.922 --     4 O    0.919
     7   8 O    1.867 --     9 H    0.919     8 H    0.826
     8   1 H    0.890 --     7 O    0.826
     9   1 H    0.923 --     7 O    0.919
    10   8 O    1.866 --    11 H    0.918    12 H    0.823
    11   1 H    0.922 --    10 O    0.918
    12   1 H    0.891 --    10 O    0.823
    13   8 O    1.876 --    15 H    0.919    14 H    0.826
    14   1 H    0.890 --    13 O    0.826
    15   1 H    0.921 --    13 O    0.919
 ---------------------------------------------------------------------------

molecular dipole:
                 x           y           z       tot (Debye)
 q only:       -0.051      -0.336       0.066
   full:       -0.084      -0.490       0.102       1.291

           -------------------------------------------------
          | TOTAL ENERGY              -25.407941763948 Eh   |
          | GRADIENT NORM               0.000354429677 Eh/Î± |
          | HOMO-LUMO GAP              12.342918797513 eV   |
           -------------------------------------------------

 * finished run on 2021/02/02 at 19:21:42.442
normal termination of xtb
